graphene nanoribon                      
   2.45900000000000     
     1.000000    0.000000    0.000000
    -0.500000    0.866025    0.000000
     0.000000    0.000000    4.000000
   C 
     2
Direct
  0.000000  0.000000  0.000000
  0.333333  0.666667  0.000000
 
   24   24   96
  4.3479      26.755      71.266      100.67      103.77      92.257      78.858      68.075      59.320      52.354    
  47.336      44.392      43.429      44.392      47.336      52.354      59.320      68.075      78.858      92.257    
  103.77      100.67      71.266      26.755      26.755      26.755      58.376      90.187      99.660      90.226    
  75.138      62.262      52.354      44.601      38.848      35.134      33.343      33.343      35.134      38.848    
  44.601      52.354      62.262      75.138      90.226      99.660      90.187      58.376      71.266      60.753    
  71.266      90.187      97.473      88.803      72.994      58.424      47.336      38.848      32.544      28.255    
  25.826      25.044      25.826      28.255      32.544      38.848      47.336      58.424      72.994      88.803    
  97.473      90.187      100.67      96.662      96.662      100.67      99.660      88.803      72.287      56.575    
  44.392      35.134      28.255      23.434      20.466      19.068      19.068      20.466      23.434      28.255    
  35.134      44.392      56.575      72.287      88.803      99.660      103.77      110.95      112.86      110.95    
  103.77      90.226      72.994      56.575      43.429      33.343      25.826      20.466      16.984      15.055    
  14.440      15.055      16.984      20.466      25.826      33.343      43.429      56.575      72.994      90.226    
  92.257      106.08      113.60      113.60      106.08      92.257      75.138      58.424      44.392      33.343    
  25.044      19.068      15.055      12.624      11.483      11.483      12.624      15.055      19.068      25.044    
  33.343      44.392      58.424      75.138      78.858      94.642      106.10      110.29      106.10      94.642    
  78.858      62.262      47.336      35.134      25.826      19.068      14.440      11.483      9.8442      9.3195    
  9.8442      11.483      14.440      19.068      25.826      35.134      47.336      62.262      68.075      84.165    
  97.746      105.61      105.61      97.746      84.165      68.075      52.354      38.848      28.255      20.466    
  15.055      11.483      9.3195      8.2972      8.2972      9.3195      11.483      15.055      20.466      28.255    
  38.848      52.354      59.320      75.460      90.594      101.55      105.57      101.55      90.594      75.460    
  59.320      44.601      32.544      23.434      16.984      12.624      9.8442      8.2972      7.7999      8.2972    
  9.8442      12.624      16.984      23.434      32.544      44.601      52.354      68.075      84.165      97.746    
  105.61      105.61      97.746      84.165      68.075      52.354      38.848      28.255      20.466      15.055    
  11.483      9.3195      8.2972      8.2972      9.3195      11.483      15.055      20.466      28.255      38.848    
  47.336      62.262      78.858      94.642      106.10      110.29      106.10      94.642      78.858      62.262    
  47.336      35.134      25.826      19.068      14.440      11.483      9.8442      9.3195      9.8442      11.483    
  14.440      19.068      25.826      35.134      44.392      58.424      75.138      92.257      106.08      113.60    
  113.60      106.08      92.257      75.138      58.424      44.392      33.343      25.044      19.068      15.055    
  12.624      11.483      11.483      12.624      15.055      19.068      25.044      33.343      43.429      56.575    
  72.994      90.226      103.77      110.95      112.86      110.95      103.77      90.226      72.994      56.575    
  43.429      33.343      25.826      20.466      16.984      15.055      14.440      15.055      16.984      20.466    
  25.826      33.343      44.392      56.575      72.287      88.803      99.660      100.67      96.662      96.662    
  100.67      99.660      88.803      72.287      56.575      44.392      35.134      28.255      23.434      20.466    
  19.068      19.068      20.466      23.434      28.255      35.134      47.336      58.424      72.994      88.803    
  97.473      90.187      71.266      60.753      71.266      90.187      97.473      88.803      72.994      58.424    
  47.336      38.848      32.544      28.255      25.826      25.044      25.826      28.255      32.544      38.848    
  52.354      62.262      75.138      90.226      99.660      90.187      58.376      26.755      26.755      58.376    
  90.187      99.660      90.226      75.138      62.262      52.354      44.601      38.848      35.134      33.343    
  33.343      35.134      38.848      44.601      59.320      68.075      78.858      92.257      103.77      100.67    
  71.266      26.755      4.3479      26.755      71.266      100.67      103.77      92.257      78.858      68.075    
  59.320      52.354      47.336      44.392      43.429      44.392      47.336      52.354      68.075      75.460    
  84.165      94.642      106.08      110.95      96.662      60.753      26.755      26.755      60.753      96.662    
  110.95      106.08      94.642      84.165      75.460      68.075      62.262      58.424      56.575      56.575    
  58.424      62.262      78.858      84.165      90.594      97.746      106.10      113.60      112.86      96.662    
  71.266      58.376      71.266      96.662      112.86      113.60      106.10      97.746      90.594      84.165    
  78.858      75.138      72.994      72.287      72.994      75.138      92.257      94.642      97.746      101.55    
  105.61      110.29      113.60      110.95      100.67      90.187      90.187      100.67      110.95      113.60    
  110.29      105.61      101.55      97.746      94.642      92.257      90.226      88.803      88.803      90.226    
  103.77      106.08      106.10      105.61      105.57      105.61      106.10      106.08      103.77      99.660    
  97.473      99.660      103.77      106.08      106.10      105.61      105.57      105.61      106.10      106.08    
  103.77      99.660      97.473      99.660      100.67      110.95      113.60      110.29      105.61      101.55    
  97.746      94.642      92.257      90.226      88.803      88.803      90.226      92.257      94.642      97.746    
  101.55      105.61      110.29      113.60      110.95      100.67      90.187      90.187      71.266      96.662    
  112.86      113.60      106.10      97.746      90.594      84.165      78.858      75.138      72.994      72.287    
  72.994      75.138      78.858      84.165      90.594      97.746      106.10      113.60      112.86      96.662    
  71.266      58.376      26.755      60.753      96.662      110.95      106.08      94.642      84.165      75.460    
  68.075      62.262      58.424      56.575      56.575      58.424      62.262      68.075      75.460      84.165    
  94.642      106.08      110.95      96.662      60.753      26.755      21.774      40.333      76.875      100.09    
  100.77      89.190      76.380      66.064      57.633      50.923      46.098      43.269      42.344      43.269    
  46.098      50.923      57.633      66.064      76.380      89.190      100.77      100.09      76.875      40.333    
  40.333      40.333      66.198      91.502      97.453      87.346      72.772      60.475      50.923      43.434    
  37.881      34.302      32.575      32.575      34.302      37.881      43.434      50.923      60.475      72.772    
  87.346      97.453      91.502      66.198      76.875      68.474      76.875      91.502      95.664      86.101    
  70.702      56.773      46.098      37.881      31.769      27.619      25.270      24.514      25.270      27.619    
  31.769      37.881      46.098      56.773      70.702      86.101      95.664      91.502      100.09      97.700    
  97.700      100.09      97.453      86.101      70.024      54.985      43.269      34.302      27.619      22.937    
  20.054      18.696      18.696      20.054      22.937      27.619      34.302      43.269      54.985      70.024    
  86.101      97.453      100.77      108.26      110.40      108.26      100.77      87.346      70.702      54.985    
  42.344      32.575      25.270      20.054      16.665      14.785      14.186      14.785      16.665      20.054    
  25.270      32.575      42.344      54.985      70.702      87.346      89.190      102.53      109.86      109.86    
  102.53      89.190      72.772      56.773      43.269      32.575      24.514      18.696      14.785      12.413    
  11.298      11.298      12.413      14.785      18.696      24.514      32.575      43.269      56.773      72.772    
  76.380      91.480      102.45      106.46      102.45      91.480      76.380      60.475      46.098      34.302    
  25.270      18.696      14.186      11.298      9.6943      9.1804      9.6943      11.298      14.186      18.696    
  25.270      34.302      46.098      60.475      66.064      81.519      94.527      102.05      102.05      94.527    
  81.519      66.064      50.923      37.881      27.619      20.054      14.785      11.298      9.1804      8.1785    
  8.1785      9.1804      11.298      14.785      20.054      27.619      37.881      50.923      57.633      73.164    
  87.696      98.206      102.06      98.206      87.696      73.164      57.633      43.434      31.769      22.937    
  16.665      12.413      9.6943      8.1785      7.6907      8.1785      9.6943      12.413      16.665      22.937    
  31.769      43.434      50.923      66.064      81.519      94.527      102.05      102.05      94.527      81.519    
  66.064      50.923      37.881      27.619      20.054      14.785      11.298      9.1804      8.1785      8.1785    
  9.1804      11.298      14.785      20.054      27.619      37.881      46.098      60.475      76.380      91.480    
  102.45      106.46      102.45      91.480      76.380      60.475      46.098      34.302      25.270      18.696    
  14.186      11.298      9.6943      9.1804      9.6943      11.298      14.186      18.696      25.270      34.302    
  43.269      56.773      72.772      89.190      102.53      109.86      109.86      102.53      89.190      72.772    
  56.773      43.269      32.575      24.514      18.696      14.785      12.413      11.298      11.298      12.413    
  14.785      18.696      24.514      32.575      42.344      54.985      70.702      87.346      100.77      108.26    
  110.40      108.26      100.77      87.346      70.702      54.985      42.344      32.575      25.270      20.054    
  16.665      14.785      14.186      14.785      16.665      20.054      25.270      32.575      43.269      54.985    
  70.024      86.101      97.453      100.09      97.700      97.700      100.09      97.453      86.101      70.024    
  54.985      43.269      34.302      27.619      22.937      20.054      18.696      18.696      20.054      22.937    
  27.619      34.302      46.098      56.773      70.702      86.101      95.664      91.502      76.875      68.474    
  76.875      91.502      95.664      86.101      70.702      56.773      46.098      37.881      31.769      27.619    
  25.270      24.514      25.270      27.619      31.769      37.881      50.923      60.475      72.772      87.346    
  97.453      91.502      66.198      40.333      40.333      66.198      91.502      97.453      87.346      72.772    
  60.475      50.923      43.434      37.881      34.302      32.575      32.575      34.302      37.881      43.434    
  57.633      66.064      76.380      89.190      100.77      100.09      76.875      40.333      21.774      40.333    
  76.875      100.09      100.77      89.190      76.380      66.064      57.633      50.923      46.098      43.269    
  42.344      43.269      46.098      50.923      66.064      73.164      81.519      91.480      102.53      108.26    
  97.700      68.474      40.333      40.333      68.474      97.700      108.26      102.53      91.480      81.519    
  73.164      66.064      60.475      56.773      54.985      54.985      56.773      60.475      76.380      81.519    
  87.696      94.527      102.45      109.86      110.40      97.700      76.875      66.198      76.875      97.700    
  110.40      109.86      102.45      94.527      87.696      81.519      76.380      72.772      70.702      70.024    
  70.702      72.772      89.190      91.480      94.527      98.206      102.05      106.46      109.86      108.26    
  100.09      91.502      91.502      100.09      108.26      109.86      106.46      102.05      98.206      94.527    
  91.480      89.190      87.346      86.101      86.101      87.346      100.77      102.53      102.45      102.05    
  102.06      102.05      102.45      102.53      100.77      97.453      95.664      97.453      100.77      102.53    
  102.45      102.05      102.06      102.05      102.45      102.53      100.77      97.453      95.664      97.453    
  100.09      108.26      109.86      106.46      102.05      98.206      94.527      91.480      89.190      87.346    
  86.101      86.101      87.346      89.190      91.480      94.527      98.206      102.05      106.46      109.86    
  108.26      100.09      91.502      91.502      76.875      97.700      110.40      109.86      102.45      94.527    
  87.696      81.519      76.380      72.772      70.702      70.024      70.702      72.772      76.380      81.519    
  87.696      94.527      102.45      109.86      110.40      97.700      76.875      66.198      40.333      68.474    
  97.700      108.26      102.53      91.480      81.519      73.164      66.064      60.475      56.773      54.985    
  54.985      56.773      60.475      66.064      73.164      81.519      91.480      102.53      108.26      97.700    
  68.474      40.333      55.837      66.192      85.791      96.015      91.954      80.729      69.565      60.466    
  52.921      46.918      42.628      40.115      39.294      40.115      42.628      46.918      52.921      60.466    
  69.565      80.729      91.954      96.015      85.791      66.192      66.192      66.192      79.840      91.455    
  90.283      79.269      66.280      55.511      46.918      40.155      35.155      31.947      30.401      30.401    
  31.947      35.155      40.155      46.918      55.511      66.280      79.269      90.283      91.455      79.840    
  85.791      81.838      85.791      91.455      89.330      78.390      64.400      52.209      42.628      35.155    
  29.582      25.817      23.687      23.001      23.687      25.817      29.582      35.155      42.628      52.209    
  64.400      78.390      89.330      91.455      96.015      96.900      96.900      96.015      90.283      78.390    
  63.790      50.597      40.115      31.947      25.817      21.526      18.882      17.633      17.633      18.882    
  21.526      25.817      31.947      40.115      50.597      63.790      78.390      90.283      91.954      99.784    
  102.28      99.784      91.954      79.269      64.400      50.597      39.294      30.401      23.687      18.882    
  15.754      14.012      13.455      14.012      15.754      18.882      23.687      30.401      39.294      50.597    
  64.400      79.269      80.729      92.640      99.300      99.300      92.640      80.729      66.280      52.209    
  40.115      30.401      23.001      17.633      14.012      11.804      10.763      10.763      11.804      14.012    
  17.633      23.001      30.401      40.115      52.209      66.280      69.565      82.806      92.415      95.937    
  92.415      82.806      69.565      55.511      42.628      31.947      23.687      17.633      13.455      10.763    
  9.2599      8.7769      9.2599      10.763      13.455      17.633      23.687      31.947      42.628      55.511    
  60.466      74.198      85.669      92.275      92.275      85.669      74.198      60.466      46.918      35.155    
  25.817      18.882      14.012      10.763      8.7769      7.8334      7.8334      8.7769      10.763      14.012    
  18.882      25.817      35.155      46.918      52.921      66.781      79.672      88.958      92.356      88.958    
  79.672      66.781      52.921      40.155      29.582      21.526      15.754      11.804      9.2599      7.8334    
  7.3730      7.8334      9.2599      11.804      15.754      21.526      29.582      40.155      46.918      60.466    
  74.198      85.669      92.275      92.275      85.669      74.198      60.466      46.918      35.155      25.817    
  18.882      14.012      10.763      8.7769      7.8334      7.8334      8.7769      10.763      14.012      18.882    
  25.817      35.155      42.628      55.511      69.565      82.806      92.415      95.937      92.415      82.806    
  69.565      55.511      42.628      31.947      23.687      17.633      13.455      10.763      9.2599      8.7769    
  9.2599      10.763      13.455      17.633      23.687      31.947      40.115      52.209      66.280      80.729    
  92.640      99.300      99.300      92.640      80.729      66.280      52.209      40.115      30.401      23.001    
  17.633      14.012      11.804      10.763      10.763      11.804      14.012      17.633      23.001      30.401    
  39.294      50.597      64.400      79.269      91.954      99.784      102.28      99.784      91.954      79.269    
  64.400      50.597      39.294      30.401      23.687      18.882      15.754      14.012      13.455      14.012    
  15.754      18.882      23.687      30.401      40.115      50.597      63.790      78.390      90.283      96.015    
  96.900      96.900      96.015      90.283      78.390      63.790      50.597      40.115      31.947      25.817    
  21.526      18.882      17.633      17.633      18.882      21.526      25.817      31.947      42.628      52.209    
  64.400      78.390      89.330      91.455      85.791      81.838      85.791      91.455      89.330      78.390    
  64.400      52.209      42.628      35.155      29.582      25.817      23.687      23.001      23.687      25.817    
  29.582      35.155      46.918      55.511      66.280      79.269      90.283      91.455      79.840      66.192    
  66.192      79.840      91.455      90.283      79.269      66.280      55.511      46.918      40.155      35.155    
  31.947      30.401      30.401      31.947      35.155      40.155      52.921      60.466      69.565      80.729    
  91.954      96.015      85.791      66.192      55.837      66.192      85.791      96.015      91.954      80.729    
  69.565      60.466      52.921      46.918      42.628      40.115      39.294      40.115      42.628      46.918    
  60.466      66.781      74.198      82.806      92.640      99.784      96.900      81.838      66.192      66.192    
  81.838      96.900      99.784      92.640      82.806      74.198      66.781      60.466      55.511      52.209    
  50.597      50.597      52.209      55.511      69.565      74.198      79.672      85.669      92.415      99.300    
  102.28      96.900      85.791      79.840      85.791      96.900      102.28      99.300      92.415      85.669    
  79.672      74.198      69.565      66.280      64.400      63.790      64.400      66.280      80.729      82.806    
  85.669      88.958      92.275      95.937      99.300      99.784      96.015      91.455      91.455      96.015    
  99.784      99.300      95.937      92.275      88.958      85.669      82.806      80.729      79.269      78.390    
  78.390      79.269      91.954      92.640      92.415      92.275      92.356      92.275      92.415      92.640    
  91.954      90.283      89.330      90.283      91.954      92.640      92.415      92.275      92.356      92.275    
  92.415      92.640      91.954      90.283      89.330      90.283      96.015      99.784      99.300      95.937    
  92.275      88.958      85.669      82.806      80.729      79.269      78.390      78.390      79.269      80.729    
  82.806      85.669      88.958      92.275      95.937      99.300      99.784      96.015      91.455      91.455    
  85.791      96.900      102.28      99.300      92.415      85.669      79.672      74.198      69.565      66.280    
  64.400      63.790      64.400      66.280      69.565      74.198      79.672      85.669      92.415      99.300    
  102.28      96.900      85.791      79.840      66.192      81.838      96.900      99.784      92.640      82.806    
  74.198      66.781      60.466      55.511      52.209      50.597      50.597      52.209      55.511      60.466    
  66.781      74.198      82.806      92.640      99.784      96.900      81.838      66.192      76.636      80.098    
  85.618      85.528      78.566      68.854      59.949      52.406      46.093      41.089      37.553      35.485    
  34.808      35.485      37.553      41.089      46.093      52.406      59.949      68.854      78.566      85.528    
  85.618      80.098      80.098      80.098      83.638      84.273      78.150      67.698      57.179      48.356    
  41.089      35.349      31.140      28.454      27.159      27.159      28.454      31.140      35.349      41.089    
  48.356      57.179      67.698      78.150      84.273      83.638      85.618      85.255      85.618      84.273    
  77.861      67.101      55.566      45.666      37.553      31.140      26.349      23.132      21.310      20.723    
  21.310      23.132      26.349      31.140      37.553      45.666      55.566      67.101      77.861      84.273    
  85.528      88.680      88.680      85.528      78.150      67.101      55.041      44.336      35.485      28.454    
  23.132      19.415      17.115      16.025      16.025      17.115      19.415      23.132      28.454      35.485    
  44.336      55.041      67.101      78.150      78.566      85.848      88.354      85.848      78.566      67.698    
  55.566      44.336      34.808      27.159      21.310      17.115      14.370      12.832      12.338      12.832    
  14.370      17.115      21.310      27.159      34.808      44.336      55.566      67.698      68.854      78.565    
  84.080      84.080      78.565      68.854      57.179      45.666      35.485      27.159      20.723      16.025    
  12.832      10.868      9.9362      9.9362      10.868      12.832      16.025      20.723      27.159      35.485    
  45.666      57.179      59.949      70.677      78.414      81.246      78.414      70.677      59.949      48.356    
  37.553      28.454      21.310      16.025      12.338      9.9362      8.5844      8.1481      8.5844      9.9362    
  12.338      16.025      21.310      28.454      37.553      48.356      52.406      63.753      73.150      78.523    
  78.523      73.150      63.753      52.406      41.089      31.140      23.132      17.115      12.832      9.9362    
  8.1481      7.2933      7.2933      8.1481      9.9362      12.832      17.115      23.132      31.140      41.089    
  46.093      57.619      68.239      75.838      78.611      75.838      68.239      57.619      46.093      35.349    
  26.349      19.415      14.370      10.868      8.5844      7.2933      6.8749      7.2933      8.5844      10.868    
  14.370      19.415      26.349      35.349      41.089      52.406      63.753      73.150      78.523      78.523    
  73.150      63.753      52.406      41.089      31.140      23.132      17.115      12.832      9.9362      8.1481    
  7.2933      7.2933      8.1481      9.9362      12.832      17.115      23.132      31.140      37.553      48.356    
  59.949      70.677      78.414      81.246      78.414      70.677      59.949      48.356      37.553      28.454    
  21.310      16.025      12.338      9.9362      8.5844      8.1481      8.5844      9.9362      12.338      16.025    
  21.310      28.454      35.485      45.666      57.179      68.854      78.565      84.080      84.080      78.565    
  68.854      57.179      45.666      35.485      27.159      20.723      16.025      12.832      10.868      9.9362    
  9.9362      10.868      12.832      16.025      20.723      27.159      34.808      44.336      55.566      67.698    
  78.566      85.848      88.354      85.848      78.566      67.698      55.566      44.336      34.808      27.159    
  21.310      17.115      14.370      12.832      12.338      12.832      14.370      17.115      21.310      27.159    
  35.485      44.336      55.041      67.101      78.150      85.528      88.680      88.680      85.528      78.150    
  67.101      55.041      44.336      35.485      28.454      23.132      19.415      17.115      16.025      16.025    
  17.115      19.415      23.132      28.454      37.553      45.666      55.566      67.101      77.861      84.273    
  85.618      85.255      85.618      84.273      77.861      67.101      55.566      45.666      37.553      31.140    
  26.349      23.132      21.310      20.723      21.310      23.132      26.349      31.140      41.089      48.356    
  57.179      67.698      78.150      84.273      83.638      80.098      80.098      83.638      84.273      78.150    
  67.698      57.179      48.356      41.089      35.349      31.140      28.454      27.159      27.159      28.454    
  31.140      35.349      46.093      52.406      59.949      68.854      78.566      85.528      85.618      80.098    
  76.636      80.098      85.618      85.528      78.566      68.854      59.949      52.406      46.093      41.089    
  37.553      35.485      34.808      35.485      37.553      41.089      52.406      57.619      63.753      70.677    
  78.565      85.848      88.680      85.255      80.098      80.098      85.255      88.680      85.848      78.565    
  70.677      63.753      57.619      52.406      48.356      45.666      44.336      44.336      45.666      48.356    
  59.949      63.753      68.239      73.150      78.414      84.080      88.354      88.680      85.618      83.638    
  85.618      88.680      88.354      84.080      78.414      73.150      68.239      63.753      59.949      57.179    
  55.566      55.041      55.566      57.179      68.854      70.677      73.150      75.838      78.523      81.246    
  84.080      85.848      85.528      84.273      84.273      85.528      85.848      84.080      81.246      78.523    
  75.838      73.150      70.677      68.854      67.698      67.101      67.101      67.698      78.566      78.565    
  78.414      78.523      78.611      78.523      78.414      78.565      78.566      78.150      77.861      78.150    
  78.566      78.565      78.414      78.523      78.611      78.523      78.414      78.565      78.566      78.150    
  77.861      78.150      85.528      85.848      84.080      81.246      78.523      75.838      73.150      70.677    
  68.854      67.698      67.101      67.101      67.698      68.854      70.677      73.150      75.838      78.523    
  81.246      84.080      85.848      85.528      84.273      84.273      85.618      88.680      88.354      84.080    
  78.414      73.150      68.239      63.753      59.949      57.179      55.566      55.041      55.566      57.179    
  59.949      63.753      68.239      73.150      78.414      84.080      88.354      88.680      85.618      83.638    
  80.098      85.255      88.680      85.848      78.565      70.677      63.753      57.619      52.406      48.356    
  45.666      44.336      44.336      45.666      48.356      52.406      57.619      63.753      70.677      78.565    
  85.848      88.680      85.255      80.098      75.136      75.246      74.193      70.071      63.320      55.971    
  49.225      43.270      38.288      34.387      31.664      30.073      29.551      30.073      31.664      34.387    
  38.288      43.270      49.225      55.971      63.320      70.071      74.193      75.246      75.246      75.246    
  74.123      70.275      63.333      55.020      47.154      40.212      34.387      29.775      26.444      24.324    
  23.299      23.299      24.324      26.444      29.775      34.387      40.212      47.154      55.020      63.333    
  70.275      74.123      74.193      75.335      74.193      70.275      63.308      54.555      45.896      38.187    
  31.664      26.444      22.554      19.945      18.460      17.980      18.460      19.945      22.554      26.444    
  31.664      38.187      45.896      54.555      63.308      70.275      70.071      73.584      73.584      70.071    
  63.333      54.555      45.477      37.184      30.073      24.324      19.945      16.887      14.980      14.069    
  14.069      14.980      16.887      19.945      24.324      30.073      37.184      45.477      54.555      63.333    
  63.320      69.127      71.202      69.127      63.320      55.020      45.896      37.184      29.551      23.299    
  18.460      14.980      12.679      11.378      10.957      11.378      12.679      14.980      18.460      23.299    
  29.551      37.184      45.896      55.020      55.971      63.232      67.372      67.372      63.232      55.971    
  47.154      38.187      30.073      23.299      17.980      14.069      11.378      9.7026      8.9007      8.9007    
  9.7026      11.378      14.069      17.980      23.299      30.073      38.187      47.154      49.225      57.425    