graphene nanoribon                      
   2.45900000000000     
     1.000000    0.000000    0.000000
    -0.500000    0.866025    0.000000
     0.000000    0.000000    4.000000
   C 
     2
Direct
  0.000000  0.000000  0.000000
  0.333333  0.666667  0.000000
 
   24   24   96
 0.43478766798E+01 0.26755034835E+02 0.71266489071E+02 0.10066507819E+03 0.10377298189E+03
 0.92257436155E+02 0.78857633114E+02 0.68075199339E+02 0.59319888172E+02 0.52353696756E+02
 0.47335504283E+02 0.44391540427E+02 0.43429172749E+02 0.44391540867E+02 0.47335504591E+02
 0.52353696416E+02 0.59319887229E+02 0.68075198235E+02 0.78857632966E+02 0.92257436900E+02
 0.10377298290E+03 0.10066507885E+03 0.71266489081E+02 0.26755034629E+02 0.26755034629E+02
 0.26755038416E+02 0.58375983956E+02 0.90187386919E+02 0.99659742192E+02 0.90226464327E+02
 0.75137812898E+02 0.62262344606E+02 0.52353696756E+02 0.44600663628E+02 0.38848291844E+02
 0.35134479229E+02 0.33342753918E+02 0.33342754683E+02 0.35134480124E+02 0.38848290137E+02
 0.44600658709E+02 0.52353691239E+02 0.62262342139E+02 0.75137813840E+02 0.90226465680E+02
 0.99659739752E+02 0.90187379430E+02 0.58375975629E+02 0.71266489081E+02 0.60752816446E+02
 0.71266495333E+02 0.90187387377E+02 0.97473442141E+02 0.88803374073E+02 0.72993555393E+02
 0.58423900170E+02 0.47335504283E+02 0.38848291844E+02 0.32543957297E+02 0.28254961388E+02
 0.25825739554E+02 0.25044321664E+02 0.25825741452E+02 0.28254962492E+02 0.32543955211E+02
 0.38848287264E+02 0.47335500438E+02 0.58423899631E+02 0.72993557405E+02 0.88803374227E+02
 0.97473437690E+02 0.90187379430E+02 0.10066507885E+03 0.96661660500E+02 0.96661660552E+02
 0.10066507881E+03 0.99659738548E+02 0.88803372059E+02 0.72286701585E+02 0.56575410467E+02
 0.44391540427E+02 0.35134479229E+02 0.28254961388E+02 0.23434328022E+02 0.20465727417E+02
 0.19068344229E+02 0.19068345284E+02 0.20465729819E+02 0.23434330001E+02 0.28254961898E+02
 0.35134478673E+02 0.44391540488E+02 0.56575411803E+02 0.72286704059E+02 0.88803374227E+02
 0.99659739752E+02 0.10377298290E+03 0.11094504593E+03 0.11286285575E+03 0.11094504138E+03
 0.10377297625E+03 0.90226460010E+02 0.72993553973E+02 0.56575410408E+02 0.43429172749E+02
 0.33342753918E+02 0.25825739554E+02 0.20465727417E+02 0.16983549859E+02 0.15054617062E+02
 0.14439820425E+02 0.15054617564E+02 0.16983551328E+02 0.20465729926E+02 0.25825742613E+02
 0.33342756182E+02 0.43429174123E+02 0.56575411803E+02 0.72993557405E+02 0.90226465680E+02
 0.92257436900E+02 0.10607621945E+03 0.11360447954E+03 0.11360447755E+03 0.10607621495E+03
 0.92257433075E+02 0.75137812813E+02 0.58423900759E+02 0.44391540867E+02 0.33342754683E+02
 0.25044321664E+02 0.19068344229E+02 0.15054617062E+02 0.12623968462E+02 0.11483240883E+02
 0.11483239997E+02 0.12623966661E+02 0.15054616742E+02 0.19068346055E+02 0.25044324525E+02
 0.33342756183E+02 0.44391540488E+02 0.58423899631E+02 0.75137813840E+02 0.78857632966E+02
 0.94641915395E+02 0.10610039974E+03 0.11029157338E+03 0.10610039980E+03 0.94641916864E+02
 0.78857636866E+02 0.62262347326E+02 0.47335504591E+02 0.35134480124E+02 0.25825741452E+02
 0.19068345284E+02 0.14439820425E+02 0.11483240883E+02 0.98442130834E+01 0.93194566618E+01
 0.98442100744E+01 0.11483237285E+02 0.14439818913E+02 0.19068346055E+02 0.25825742613E+02
 0.35134478673E+02 0.47335500438E+02 0.62262342139E+02 0.68075198235E+02 0.84165029424E+02
 0.97746126995E+02 0.10561471080E+03 0.10561471160E+03 0.97746129595E+02 0.84165033922E+02
 0.68075203846E+02 0.52353696416E+02 0.38848290137E+02 0.28254962492E+02 0.20465729819E+02
 0.15054617564E+02 0.11483239997E+02 0.93194566618E+01 0.82972385915E+01 0.82972371696E+01
 0.93194537199E+01 0.11483237285E+02 0.15054616742E+02 0.20465729926E+02 0.28254961898E+02
 0.38848287264E+02 0.52353691238E+02 0.59319887229E+02 0.75460418320E+02 0.90594043636E+02
 0.10155306792E+03 0.10557377621E+03 0.10155306792E+03 0.90594043636E+02 0.75460418320E+02
 0.59319887229E+02 0.44600658709E+02 0.32543955211E+02 0.23434330001E+02 0.16983551328E+02
 0.12623966661E+02 0.98442100744E+01 0.82972371696E+01 0.77998831904E+01 0.82972371696E+01
 0.98442100744E+01 0.12623966661E+02 0.16983551328E+02 0.23434330001E+02 0.32543955211E+02
 0.44600658709E+02 0.52353696416E+02 0.68075203846E+02 0.84165033922E+02 0.97746129595E+02
 0.10561471160E+03 0.10561471080E+03 0.97746126995E+02 0.84165029424E+02 0.68075198235E+02
 0.52353691239E+02 0.38848287264E+02 0.28254961898E+02 0.20465729926E+02 0.15054616742E+02
 0.11483237285E+02 0.93194537199E+01 0.82972371696E+01 0.82972385915E+01 0.93194566618E+01
 0.11483239997E+02 0.15054617564E+02 0.20465729819E+02 0.28254962492E+02 0.38848290137E+02
 0.47335504591E+02 0.62262347326E+02 0.78857636866E+02 0.94641916864E+02 0.10610039980E+03
 0.11029157338E+03 0.10610039974E+03 0.94641915395E+02 0.78857632966E+02 0.62262342139E+02
 0.47335500438E+02 0.35134478673E+02 0.25825742613E+02 0.19068346055E+02 0.14439818913E+02
 0.11483237285E+02 0.98442100744E+01 0.93194566618E+01 0.98442130834E+01 0.11483240883E+02
 0.14439820425E+02 0.19068345284E+02 0.25825741452E+02 0.35134480124E+02 0.44391540867E+02
 0.58423900759E+02 0.75137812813E+02 0.92257433075E+02 0.10607621495E+03 0.11360447755E+03
 0.11360447954E+03 0.10607621945E+03 0.92257436900E+02 0.75137813840E+02 0.58423899631E+02
 0.44391540488E+02 0.33342756182E+02 0.25044324525E+02 0.19068346055E+02 0.15054616742E+02
 0.12623966661E+02 0.11483239997E+02 0.11483240883E+02 0.12623968462E+02 0.15054617062E+02
 0.19068344229E+02 0.25044321664E+02 0.33342754683E+02 0.43429172749E+02 0.56575410408E+02
 0.72993553973E+02 0.90226460010E+02 0.10377297625E+03 0.11094504138E+03 0.11286285575E+03
 0.11094504593E+03 0.10377298290E+03 0.90226465680E+02 0.72993557405E+02 0.56575411803E+02
 0.43429174123E+02 0.33342756183E+02 0.25825742613E+02 0.20465729926E+02 0.16983551328E+02
 0.15054617564E+02 0.14439820425E+02 0.15054617062E+02 0.16983549859E+02 0.20465727417E+02
 0.25825739554E+02 0.33342753918E+02 0.44391540427E+02 0.56575410467E+02 0.72286701585E+02
 0.88803372059E+02 0.99659738548E+02 0.10066507881E+03 0.96661660552E+02 0.96661660500E+02
 0.10066507885E+03 0.99659739752E+02 0.88803374227E+02 0.72286704059E+02 0.56575411803E+02
 0.44391540488E+02 0.35134478673E+02 0.28254961898E+02 0.23434330001E+02 0.20465729819E+02
 0.19068345284E+02 0.19068344229E+02 0.20465727417E+02 0.23434328022E+02 0.28254961388E+02
 0.35134479229E+02 0.47335504283E+02 0.58423900170E+02 0.72993555393E+02 0.88803374073E+02
 0.97473442141E+02 0.90187387377E+02 0.71266495333E+02 0.60752816446E+02 0.71266489081E+02
 0.90187379430E+02 0.97473437690E+02 0.88803374227E+02 0.72993557405E+02 0.58423899631E+02
 0.47335500438E+02 0.38848287264E+02 0.32543955211E+02 0.28254962492E+02 0.25825741452E+02
 0.25044321664E+02 0.25825739554E+02 0.28254961388E+02 0.32543957297E+02 0.38848291844E+02
 0.52353696756E+02 0.62262344606E+02 0.75137812898E+02 0.90226464327E+02 0.99659742192E+02
 0.90187386919E+02 0.58375983956E+02 0.26755038416E+02 0.26755034629E+02 0.58375975629E+02
 0.90187379430E+02 0.99659739752E+02 0.90226465680E+02 0.75137813840E+02 0.62262342139E+02
 0.52353691239E+02 0.44600658709E+02 0.38848290137E+02 0.35134480124E+02 0.33342754683E+02
 0.33342753918E+02 0.35134479229E+02 0.38848291844E+02 0.44600663628E+02 0.59319888172E+02
 0.68075199339E+02 0.78857633114E+02 0.92257436155E+02 0.10377298189E+03 0.10066507819E+03
 0.71266489071E+02 0.26755034835E+02 0.43478766798E+01 0.26755034629E+02 0.71266489081E+02
 0.10066507885E+03 0.10377298290E+03 0.92257436900E+02 0.78857632966E+02 0.68075198235E+02
 0.59319887229E+02 0.52353696416E+02 0.47335504591E+02 0.44391540867E+02 0.43429172749E+02
 0.44391540427E+02 0.47335504283E+02 0.52353696756E+02 0.68075199339E+02 0.75460413836E+02
 0.84165027810E+02 0.94641916555E+02 0.10607622011E+03 0.11094504287E+03 0.96661652901E+02
 0.60752808473E+02 0.26755034835E+02 0.26755038416E+02 0.60752816446E+02 0.96661660500E+02
 0.11094504593E+03 0.10607621945E+03 0.94641915395E+02 0.84165029424E+02 0.75460418320E+02
 0.68075203846E+02 0.62262347326E+02 0.58423900759E+02 0.56575410408E+02 0.56575410467E+02
 0.58423900170E+02 0.62262344606E+02 0.78857633114E+02 0.84165027810E+02 0.90594039136E+02
 0.97746126832E+02 0.10610040304E+03 0.11360448113E+03 0.11286285233E+03 0.96661652901E+02
 0.71266489071E+02 0.58375983956E+02 0.71266495333E+02 0.96661660552E+02 0.11286285575E+03
 0.11360447954E+03 0.10610039974E+03 0.97746126995E+02 0.90594043636E+02 0.84165033922E+02
 0.78857636866E+02 0.75137812813E+02 0.72993553973E+02 0.72286701585E+02 0.72993555393E+02
 0.75137812898E+02 0.92257436155E+02 0.94641916555E+02 0.97746126832E+02 0.10155306645E+03
 0.10561471228E+03 0.11029157756E+03 0.11360448113E+03 0.11094504287E+03 0.10066507819E+03
 0.90187386919E+02 0.90187387377E+02 0.10066507881E+03 0.11094504138E+03 0.11360447755E+03
 0.11029157338E+03 0.10561471080E+03 0.10155306792E+03 0.97746129595E+02 0.94641916864E+02
 0.92257433075E+02 0.90226460010E+02 0.88803372059E+02 0.88803374073E+02 0.90226464327E+02
 0.10377298189E+03 0.10607622011E+03 0.10610040304E+03 0.10561471228E+03 0.10557377611E+03
 0.10561471228E+03 0.10610040304E+03 0.10607622011E+03 0.10377298189E+03 0.99659742192E+02
 0.97473442141E+02 0.99659738548E+02 0.10377297625E+03 0.10607621495E+03 0.10610039980E+03
 0.10561471160E+03 0.10557377621E+03 0.10561471160E+03 0.10610039980E+03 0.10607621495E+03
 0.10377297625E+03 0.99659738548E+02 0.97473442141E+02 0.99659742192E+02 0.10066507819E+03
 0.11094504287E+03 0.11360448113E+03 0.11029157756E+03 0.10561471228E+03 0.10155306645E+03
 0.97746126832E+02 0.94641916555E+02 0.92257436155E+02 0.90226464327E+02 0.88803374073E+02
 0.88803372059E+02 0.90226460010E+02 0.92257433075E+02 0.94641916864E+02 0.97746129595E+02
 0.10155306792E+03 0.10561471080E+03 0.11029157338E+03 0.11360447755E+03 0.11094504138E+03
 0.10066507881E+03 0.90187387377E+02 0.90187386919E+02 0.71266489071E+02 0.96661652901E+02
 0.11286285233E+03 0.11360448113E+03 0.10610040304E+03 0.97746126832E+02 0.90594039136E+02
 0.84165027810E+02 0.78857633114E+02 0.75137812898E+02 0.72993555393E+02 0.72286701585E+02
 0.72993553973E+02 0.75137812813E+02 0.78857636866E+02 0.84165033922E+02 0.90594043636E+02
 0.97746126995E+02 0.10610039974E+03 0.11360447954E+03 0.11286285575E+03 0.96661660552E+02
 0.71266495333E+02 0.58375983956E+02 0.26755034835E+02 0.60752808473E+02 0.96661652901E+02
 0.11094504287E+03 0.10607622011E+03 0.94641916555E+02 0.84165027810E+02 0.75460413836E+02
 0.68075199339E+02 0.62262344606E+02 0.58423900170E+02 0.56575410467E+02 0.56575410408E+02
 0.58423900759E+02 0.62262347326E+02 0.68075203846E+02 0.75460418320E+02 0.84165029424E+02
 0.94641915395E+02 0.10607621945E+03 0.11094504593E+03 0.96661660500E+02 0.60752816446E+02
 0.26755038416E+02 0.21774260113E+02 0.40333417198E+02 0.76874963049E+02 0.10008543078E+03
 0.10077251905E+03 0.89189755629E+02 0.76379726846E+02 0.66063869977E+02 0.57633067755E+02
 0.50923080000E+02 0.46097987479E+02 0.43269120958E+02 0.42344270286E+02 0.43269120311E+02
 0.46097986251E+02 0.50923078457E+02 0.57633066427E+02 0.66063869348E+02 0.76379727531E+02
 0.89189757082E+02 0.10077252042E+03 0.10008543147E+03 0.76874962964E+02 0.40333416874E+02
 0.40333416902E+02 0.40333419064E+02 0.66198269087E+02 0.91502131056E+02 0.97453455565E+02
 0.87346108236E+02 0.72772400395E+02 0.60475384374E+02 0.50923080000E+02 0.43433776123E+02
 0.37880503500E+02 0.34301680183E+02 0.32575301916E+02 0.32575302058E+02 0.34301679978E+02
 0.37880501576E+02 0.43433772615E+02 0.50923076648E+02 0.60475383447E+02 0.72772401723E+02
 0.87346109940E+02 0.97453454811E+02 0.91502127036E+02 0.66198264358E+02 0.76874962948E+02
 0.68473595235E+02 0.76874966187E+02 0.91502131153E+02 0.95664303356E+02 0.86100888405E+02
 0.70701966298E+02 0.56773385566E+02 0.46097987479E+02 0.37880503500E+02 0.31769363699E+02
 0.27619435976E+02 0.25269722341E+02 0.24513758587E+02 0.25269723662E+02 0.27619437046E+02
 0.31769363039E+02 0.37880501305E+02 0.46097985344E+02 0.56773385037E+02 0.70701967160E+02
 0.86100888326E+02 0.95664301046E+02 0.91502127023E+02 0.10008543148E+03 0.97700288785E+02
 0.97700288459E+02 0.10008543076E+03 0.97453453795E+02 0.86100887692E+02 0.70023616193E+02
 0.54984977820E+02 0.43269120958E+02 0.34301680183E+02 0.27619435976E+02 0.22937457110E+02
 0.20054307064E+02 0.18696255350E+02 0.18696256330E+02 0.20054309507E+02 0.22937459646E+02
 0.27619437451E+02 0.34301680267E+02 0.43269120423E+02 0.54984977187E+02 0.70023616310E+02
 0.86100888313E+02 0.97453454837E+02 0.10077252041E+03 0.10825987849E+03 0.11039997488E+03
 0.10825987553E+03 0.10077251632E+03 0.87346106893E+02 0.70701965992E+02 0.54984977583E+02
 0.42344270286E+02 0.32575301916E+02 0.25269722341E+02 0.20054307064E+02 0.16664956619E+02
 0.14785234994E+02 0.14185646655E+02 0.14785235855E+02 0.16664958404E+02 0.20054309415E+02
 0.25269724598E+02 0.32575302904E+02 0.42344270124E+02 0.54984977191E+02 0.70701967170E+02
 0.87346109917E+02 0.89189757083E+02 0.10253132911E+03 0.10985848725E+03 0.10985848628E+03
 0.10253132689E+03 0.89189755111E+02 0.72772401115E+02 0.56773385462E+02 0.43269120311E+02
 0.32575302058E+02 0.24513758587E+02 0.18696255350E+02 0.14785234994E+02 0.12412795089E+02
 0.11297949392E+02 0.11297948881E+02 0.12412793888E+02 0.14785234562E+02 0.18696256014E+02
 0.24513759985E+02 0.32575302900E+02 0.43269120425E+02 0.56773385023E+02 0.72772401751E+02
 0.76379727533E+02 0.91479502405E+02 0.10244529014E+03 0.10645939250E+03 0.10244529087E+03
 0.91479503979E+02 0.76379729795E+02 0.60475385323E+02 0.46097986251E+02 0.34301679978E+02
 0.25269723662E+02 0.18696256330E+02 0.14185646655E+02 0.11297949392E+02 0.96942867987E+01
 0.91803526804E+01 0.96942844169E+01 0.11297946182E+02 0.14185644570E+02 0.18696256011E+02
 0.25269724605E+02 0.34301680263E+02 0.46097985361E+02 0.60475383417E+02 0.66063869355E+02
 0.81518742433E+02 0.94527399443E+02 0.10205428633E+03 0.10205428711E+03 0.94527401581E+02
 0.81518745321E+02 0.66063872108E+02 0.50923078457E+02 0.37880501576E+02 0.27619437046E+02
 0.20054309507E+02 0.14785235855E+02 0.11297948881E+02 0.91803526804E+01 0.81785144311E+01
 0.81785132627E+01 0.91803501568E+01 0.11297946190E+02 0.14785234557E+02 0.20054309415E+02
 0.27619437447E+02 0.37880501296E+02 0.50923076670E+02 0.57633066419E+02 0.73163732405E+02
 0.87695914958E+02 0.98205644334E+02 0.10205909395E+03 0.98205644332E+02 0.87695914980E+02
 0.73163732378E+02 0.57633066427E+02 0.43433772615E+02 0.31769363039E+02 0.22937459646E+02
 0.16664958404E+02 0.12412793888E+02 0.96942844169E+01 0.81785132627E+01 0.76907189342E+01
 0.81785132640E+01 0.96942844076E+01 0.12412793894E+02 0.16664958403E+02 0.22937459651E+02
 0.31769363047E+02 0.43433772594E+02 0.50923078466E+02 0.66063872080E+02 0.81518745345E+02
 0.94527401577E+02 0.10205428711E+03 0.10205428633E+03 0.94527399422E+02 0.81518742458E+02
 0.66063869348E+02 0.50923076648E+02 0.37880501305E+02 0.27619437451E+02 0.20054309415E+02
 0.14785234562E+02 0.11297946182E+02 0.91803501568E+01 0.81785132640E+01 0.81785144284E+01
 0.91803526910E+01 0.11297948874E+02 0.14785235858E+02 0.20054309500E+02 0.27619437039E+02
 0.37880501596E+02 0.46097986234E+02 0.60475385359E+02 0.76379729763E+02 0.91479503991E+02
 0.10244529086E+03 0.10645939250E+03 0.10244529015E+03 0.91479502388E+02 0.76379727531E+02
 0.60475383447E+02 0.46097985344E+02 0.34301680267E+02 0.25269724598E+02 0.18696256014E+02
 0.14185644570E+02 0.11297946190E+02 0.96942844076E+01 0.91803526910E+01 0.96942867801E+01
 0.11297949407E+02 0.14185646644E+02 0.18696256344E+02 0.25269723661E+02 0.34301679967E+02
 0.43269120325E+02 0.56773385429E+02 0.72772401144E+02 0.89189755102E+02 0.10253132689E+03
 0.10985848627E+03 0.10985848723E+03 0.10253132913E+03 0.89189757082E+02 0.72772401723E+02
 0.56773385037E+02 0.43269120423E+02 0.32575302904E+02 0.24513759985E+02 0.18696256011E+02
 0.14785234557E+02 0.12412793894E+02 0.11297948874E+02 0.11297949407E+02 0.12412795077E+02
 0.14785235002E+02 0.18696255338E+02 0.24513758585E+02 0.32575302072E+02 0.42344270276E+02
 0.54984977612E+02 0.70701965968E+02 0.87346106897E+02 0.10077251632E+03 0.10825987553E+03
 0.11039997490E+03 0.10825987847E+03 0.10077252042E+03 0.87346109940E+02 0.70701967160E+02
 0.54984977187E+02 0.42344270124E+02 0.32575302900E+02 0.25269724605E+02 0.20054309415E+02
 0.16664958403E+02 0.14785235858E+02 0.14185646644E+02 0.14785235002E+02 0.16664956616E+02
 0.20054307071E+02 0.25269722348E+02 0.32575301897E+02 0.43269120971E+02 0.54984977788E+02
 0.70023616220E+02 0.86100887685E+02 0.97453453800E+02 0.10008543076E+03 0.97700288441E+02
 0.97700288807E+02 0.10008543147E+03 0.97453454811E+02 0.86100888326E+02 0.70023616310E+02
 0.54984977191E+02 0.43269120425E+02 0.34301680263E+02 0.27619437447E+02 0.22937459651E+02
 0.20054309500E+02 0.18696256344E+02 0.18696255338E+02 0.20054307071E+02 0.22937457100E+02
 0.27619435973E+02 0.34301680199E+02 0.46097987480E+02 0.56773385585E+02 0.70701966284E+02
 0.86100888399E+02 0.95664303364E+02 0.91502131143E+02 0.76874966217E+02 0.68473595199E+02
 0.76874962964E+02 0.91502127036E+02 0.95664301046E+02 0.86100888313E+02 0.70701967170E+02
 0.56773385023E+02 0.46097985361E+02 0.37880501296E+02 0.31769363047E+02 0.27619437039E+02
 0.25269723661E+02 0.24513758585E+02 0.25269722348E+02 0.27619435973E+02 0.31769363716E+02
 0.37880503471E+02 0.50923079987E+02 0.60475384368E+02 0.72772400397E+02 0.87346108254E+02
 0.97453455544E+02 0.91502131080E+02 0.66198269044E+02 0.40333419112E+02 0.40333416874E+02
 0.66198264358E+02 0.91502127023E+02 0.97453454837E+02 0.87346109917E+02 0.72772401751E+02
 0.60475383417E+02 0.50923076670E+02 0.43433772594E+02 0.37880501596E+02 0.34301679967E+02
 0.32575302072E+02 0.32575301897E+02 0.34301680199E+02 0.37880503471E+02 0.43433776165E+02
 0.57633067739E+02 0.66063870012E+02 0.76379726816E+02 0.89189755639E+02 0.10077251904E+03
 0.10008543078E+03 0.76874963064E+02 0.40333417178E+02 0.21774260113E+02 0.40333416902E+02
 0.76874962948E+02 0.10008543148E+03 0.10077252041E+03 0.89189757083E+02 0.76379727533E+02
 0.66063869355E+02 0.57633066419E+02 0.50923078466E+02 0.46097986234E+02 0.43269120325E+02
 0.42344270276E+02 0.43269120971E+02 0.46097987480E+02 0.50923079987E+02 0.66063870012E+02
 0.73163729880E+02 0.81518741457E+02 0.91479502840E+02 0.10253132941E+03 0.10825987693E+03
 0.97700284800E+02 0.68473591085E+02 0.40333417198E+02 0.40333419064E+02 0.68473595235E+02
 0.97700288785E+02 0.10825987849E+03 0.10253132911E+03 0.91479502405E+02 0.81518742433E+02
 0.73163732405E+02 0.66063872080E+02 0.60475385359E+02 0.56773385429E+02 0.54984977612E+02
 0.54984977788E+02 0.56773385585E+02 0.60475384368E+02 0.76379726816E+02 0.81518741457E+02
 0.87695912295E+02 0.94527399572E+02 0.10244529258E+03 0.10985848883E+03 0.11039997378E+03
 0.97700284795E+02 0.76874963050E+02 0.66198269087E+02 0.76874966187E+02 0.97700288459E+02
 0.11039997488E+03 0.10985848725E+03 0.10244529014E+03 0.94527399443E+02 0.87695914958E+02
 0.81518745345E+02 0.76379729763E+02 0.72772401144E+02 0.70701965968E+02 0.70023616220E+02
 0.70701966284E+02 0.72772400397E+02 0.89189755639E+02 0.91479502840E+02 0.94527399572E+02
 0.98205643643E+02 0.10205428750E+03 0.10645939546E+03 0.10985848881E+03 0.10825987696E+03
 0.10008543078E+03 0.91502131056E+02 0.91502131153E+02 0.10008543076E+03 0.10825987553E+03
 0.10985848628E+03 0.10645939250E+03 0.10205428633E+03 0.98205644334E+02 0.94527401577E+02
 0.91479503991E+02 0.89189755102E+02 0.87346106897E+02 0.86100887685E+02 0.86100888399E+02
 0.87346108254E+02 0.10077251904E+03 0.10253132941E+03 0.10244529258E+03 0.10205428750E+03
 0.10205909413E+03 0.10205428750E+03 0.10244529260E+03 0.10253132938E+03 0.10077251905E+03
 0.97453455565E+02 0.95664303356E+02 0.97453453795E+02 0.10077251632E+03 0.10253132689E+03
 0.10244529087E+03 0.10205428711E+03 0.10205909395E+03 0.10205428711E+03 0.10244529086E+03
 0.10253132689E+03 0.10077251632E+03 0.97453453800E+02 0.95664303364E+02 0.97453455544E+02
 0.10008543078E+03 0.10825987693E+03 0.10985848883E+03 0.10645939546E+03 0.10205428750E+03
 0.98205643648E+02 0.94527399547E+02 0.91479502869E+02 0.89189755629E+02 0.87346108236E+02
 0.86100888405E+02 0.86100887692E+02 0.87346106893E+02 0.89189755111E+02 0.91479503979E+02
 0.94527401581E+02 0.98205644332E+02 0.10205428633E+03 0.10645939250E+03 0.10985848627E+03
 0.10825987553E+03 0.10008543076E+03 0.91502131143E+02 0.91502131080E+02 0.76874963064E+02
 0.97700284800E+02 0.11039997378E+03 0.10985848881E+03 0.10244529260E+03 0.94527399547E+02
 0.87695912340E+02 0.81518741408E+02 0.76379726846E+02 0.72772400395E+02 0.70701966298E+02
 0.70023616193E+02 0.70701965992E+02 0.72772401115E+02 0.76379729795E+02 0.81518745321E+02
 0.87695914980E+02 0.94527399422E+02 0.10244529015E+03 0.10985848723E+03 0.11039997490E+03
 0.97700288441E+02 0.76874966217E+02 0.66198269044E+02 0.40333417178E+02 0.68473591085E+02
 0.97700284795E+02 0.10825987696E+03 0.10253132938E+03 0.91479502869E+02 0.81518741408E+02
 0.73163729934E+02 0.66063869977E+02 0.60475384374E+02 0.56773385566E+02 0.54984977820E+02
 0.54984977583E+02 0.56773385462E+02 0.60475385323E+02 0.66063872108E+02 0.73163732378E+02
 0.81518742458E+02 0.91479502388E+02 0.10253132913E+03 0.10825987847E+03 0.97700288807E+02
 0.68473595199E+02 0.40333419112E+02 0.55837163349E+02 0.66191744899E+02 0.85790681100E+02
 0.96015384442E+02 0.91954397926E+02 0.80728722939E+02 0.69565423075E+02 0.60465914762E+02
 0.52921084862E+02 0.46918056425E+02 0.42627508887E+02 0.40115493053E+02 0.39293893953E+02
 0.40115489988E+02 0.42627504236E+02 0.46918052224E+02 0.52921082695E+02 0.60465915223E+02
 0.69565425624E+02 0.80728725936E+02 0.91954400072E+02 0.96015385172E+02 0.85790680788E+02
 0.66191744351E+02 0.66191744401E+02 0.66191742885E+02 0.79839883538E+02 0.91454531032E+02
 0.90283471176E+02 0.79268728721E+02 0.66279967455E+02 0.55511233205E+02 0.46918056425E+02
 0.40154951429E+02 0.35154628339E+02 0.31947423637E+02 0.30400737734E+02 0.30400736487E+02
 0.31947420934E+02 0.35154626019E+02 0.40154951155E+02 0.46918058076E+02 0.55511235725E+02
 0.66279969650E+02 0.79268731133E+02 0.90283474263E+02 0.91454534925E+02 0.79839887045E+02
 0.85790680755E+02 0.81838289740E+02 0.85790677133E+02 0.91454530318E+02 0.89329816928E+02
 0.78390098698E+02 0.64399894251E+02 0.52209177444E+02 0.42627508887E+02 0.35154628339E+02
 0.29581816571E+02 0.25817494933E+02 0.23687224096E+02 0.23001471198E+02 0.23687224084E+02
 0.25817495896E+02 0.29581819133E+02 0.35154631571E+02 0.42627510671E+02 0.52209176947E+02
 0.64399892495E+02 0.78390098111E+02 0.89329819480E+02 0.91454534909E+02 0.96015385186E+02
 0.96899561645E+02 0.96899560474E+02 0.96015382937E+02 0.90283473701E+02 0.78390100929E+02
 0.63790323028E+02 0.50596550790E+02 0.40115493053E+02 0.31947423637E+02 0.25817494933E+02
 0.21526389780E+02 0.18881804875E+02 0.17633370316E+02 0.17633371129E+02 0.18881807314E+02
 0.21526393520E+02 0.25817498529E+02 0.31947425172E+02 0.40115491151E+02 0.50596545795E+02
 0.63790317811E+02 0.78390098092E+02 0.90283474298E+02 0.91954400059E+02 0.99783662103E+02
 0.10228234902E+03 0.99783662826E+02 0.91954401831E+02 0.79268734073E+02 0.64399896464E+02
 0.50596550204E+02 0.39293893953E+02 0.30400737734E+02 0.23687224096E+02 0.18881804875E+02
 0.15753565418E+02 0.14012242242E+02 0.13455438278E+02 0.14012243882E+02 0.15753567866E+02
 0.18881806802E+02 0.23687224466E+02 0.30400735847E+02 0.39293890348E+02 0.50596545795E+02
 0.64399892515E+02 0.79268731097E+02 0.80728725941E+02 0.92640159609E+02 0.99300136561E+02
 0.99300137892E+02 0.92640162559E+02 0.80728728199E+02 0.66279970003E+02 0.52209175728E+02
 0.40115489988E+02 0.30400736487E+02 0.23001471198E+02 0.17633370316E+02 0.14012242242E+02
 0.11804425739E+02 0.10762933484E+02 0.10762933800E+02 0.11804425950E+02 0.14012241539E+02
 0.17633368378E+02 0.23001469255E+02 0.30400735838E+02 0.40115491160E+02 0.52209176918E+02
 0.66279969696E+02 0.69565425627E+02 0.82805857380E+02 0.92415196747E+02 0.95937173197E+02
 0.92415198977E+02 0.82805859166E+02 0.69565424100E+02 0.55511230172E+02 0.42627504236E+02
 0.31947420934E+02 0.23687224084E+02 0.17633371129E+02 0.13455438278E+02 0.10762933484E+02
 0.92599236644E+01 0.87768785903E+01 0.92599227655E+01 0.10762931237E+02 0.13455434963E+02
 0.17633368370E+02 0.23687224483E+02 0.31947425155E+02 0.42627510708E+02 0.55511235672E+02
 0.60465915233E+02 0.74197598556E+02 0.85668680022E+02 0.92274818508E+02 0.92274819219E+02
 0.85668681068E+02 0.74197597739E+02 0.60465911477E+02 0.46918052224E+02 0.35154626019E+02
 0.25817495896E+02 0.18881807314E+02 0.14012243882E+02 0.10762933800E+02 0.87768785903E+01
 0.78333732648E+01 0.78333727178E+01 0.87768770553E+01 0.10762931251E+02 0.14012241533E+02
 0.18881806799E+02 0.25817498533E+02 0.35154631548E+02 0.46918058116E+02 0.52921082680E+02
 0.66780964377E+02 0.79671966508E+02 0.88957915018E+02 0.92356178291E+02 0.88957915005E+02
 0.79671966554E+02 0.66780964330E+02 0.52921082695E+02 0.40154951155E+02 0.29581819133E+02
 0.21526393520E+02 0.15753567866E+02 0.11804425950E+02 0.92599227655E+01 0.78333727178E+01
 0.73730222925E+01 0.78333727215E+01 0.92599227480E+01 0.11804425959E+02 0.15753567865E+02
 0.21526393520E+02 0.29581819152E+02 0.40154951120E+02 0.46918052242E+02 0.60465911426E+02
 0.74197597788E+02 0.85668681052E+02 0.92274819222E+02 0.92274818517E+02 0.85668679980E+02
 0.74197598599E+02 0.60465915223E+02 0.46918058076E+02 0.35154631571E+02 0.25817498529E+02
 0.18881806802E+02 0.14012241539E+02 0.10762931237E+02 0.87768770553E+01 0.78333727215E+01
 0.78333732573E+01 0.87768786115E+01 0.10762933787E+02 0.14012243886E+02 0.18881807310E+02
 0.25817495880E+02 0.35154626051E+02 0.42627504204E+02 0.55511230237E+02 0.69565424037E+02
 0.82805859196E+02 0.92415198959E+02 0.95937173202E+02 0.92415196775E+02 0.82805857350E+02
 0.69565425624E+02 0.55511235725E+02 0.42627510671E+02 0.31947425172E+02 0.23687224466E+02
 0.17633368378E+02 0.13455434963E+02 0.10762931251E+02 0.92599227480E+01 0.87768786115E+01
 0.92599236293E+01 0.10762933511E+02 0.13455438260E+02 0.17633371147E+02 0.23687224086E+02
 0.31947420916E+02 0.40115490012E+02 0.52209175671E+02 0.66279970058E+02 0.80728728177E+02
 0.92640162568E+02 0.99300137894E+02 0.99300136525E+02 0.92640159647E+02 0.80728725936E+02
 0.66279969650E+02 0.52209176947E+02 0.40115491151E+02 0.30400735847E+02 0.23001469255E+02
 0.17633368370E+02 0.14012241533E+02 0.11804425959E+02 0.10762933787E+02 0.10762933511E+02
 0.11804425719E+02 0.14012242253E+02 0.17633370307E+02 0.23001471188E+02 0.30400736513E+02
 0.39293893939E+02 0.50596550252E+02 0.64399896417E+02 0.79268734086E+02 0.91954401830E+02
 0.99783662814E+02 0.10228234907E+03 0.99783662056E+02 0.91954400072E+02 0.79268731133E+02
 0.64399892495E+02 0.50596545795E+02 0.39293890348E+02 0.30400735838E+02 0.23687224483E+02
 0.18881806799E+02 0.15753567865E+02 0.14012243886E+02 0.13455438260E+02 0.14012242253E+02
 0.15753565417E+02 0.18881804876E+02 0.23687224115E+02 0.30400737699E+02 0.40115493067E+02
 0.50596550744E+02 0.63790323074E+02 0.78390100917E+02 0.90283473701E+02 0.96015382949E+02
 0.96899560429E+02 0.96899561692E+02 0.96015385172E+02 0.90283474263E+02 0.78390098111E+02
 0.63790317811E+02 0.50596545795E+02 0.40115491160E+02 0.31947425155E+02 0.25817498533E+02
 0.21526393520E+02 0.18881807310E+02 0.17633371147E+02 0.17633370307E+02 0.18881804876E+02
 0.21526389780E+02 0.25817494914E+02 0.31947423673E+02 0.42627508893E+02 0.52209177472E+02
 0.64399894225E+02 0.78390098691E+02 0.89329816948E+02 0.91454530286E+02 0.85790677198E+02
 0.81838289674E+02 0.85790680788E+02 0.91454534925E+02 0.89329819480E+02 0.78390098092E+02
 0.64399892515E+02 0.52209176918E+02 0.42627510708E+02 0.35154631548E+02 0.29581819152E+02
 0.25817495880E+02 0.23687224086E+02 0.23001471188E+02 0.23687224115E+02 0.25817494914E+02
 0.29581816610E+02 0.35154628284E+02 0.46918056403E+02 0.55511233194E+02 0.66279967464E+02
 0.79268728744E+02 0.90283471141E+02 0.91454531080E+02 0.79839883457E+02 0.66191742968E+02
 0.66191744351E+02 0.79839887045E+02 0.91454534909E+02 0.90283474298E+02 0.79268731097E+02
 0.66279969696E+02 0.55511235672E+02 0.46918058116E+02 0.40154951120E+02 0.35154626051E+02
 0.31947420916E+02 0.30400736513E+02 0.30400737699E+02 0.31947423673E+02 0.35154628284E+02
 0.40154951500E+02 0.52921084834E+02 0.60465914823E+02 0.69565423015E+02 0.80728722965E+02
 0.91954397912E+02 0.96015384444E+02 0.85790681132E+02 0.66191744866E+02 0.55837163349E+02
 0.66191744401E+02 0.85790680755E+02 0.96015385186E+02 0.91954400059E+02 0.80728725941E+02
 0.69565425627E+02 0.60465915233E+02 0.52921082680E+02 0.46918052242E+02 0.42627504204E+02
 0.40115490012E+02 0.39293893939E+02 0.40115493067E+02 0.42627508893E+02 0.46918056403E+02
 0.60465914823E+02 0.66780966416E+02 0.74197598981E+02 0.82805856190E+02 0.92640159074E+02
 0.99783663978E+02 0.96899565907E+02 0.81838294305E+02 0.66191744899E+02 0.66191742885E+02
 0.81838289740E+02 0.96899561645E+02 0.99783662103E+02 0.92640159609E+02 0.82805857380E+02
 0.74197598556E+02 0.66780964377E+02 0.60465911426E+02 0.55511230237E+02 0.52209175671E+02
 0.50596550252E+02 0.50596550744E+02 0.52209177472E+02 0.55511233194E+02 0.69565423015E+02
 0.74197598981E+02 0.79671968056E+02 0.85668680832E+02 0.92415197162E+02 0.99300138085E+02
 0.10228235316E+03 0.96899565906E+02 0.85790681100E+02 0.79839883538E+02 0.85790677133E+02
 0.96899560474E+02 0.10228234902E+03 0.99300136561E+02 0.92415196747E+02 0.85668680022E+02
 0.79671966508E+02 0.74197597788E+02 0.69565424037E+02 0.66279970058E+02 0.64399896417E+02
 0.63790323074E+02 0.64399894225E+02 0.66279967464E+02 0.80728722965E+02 0.82805856190E+02
 0.85668680832E+02 0.88957916048E+02 0.92274819008E+02 0.95937173324E+02 0.99300138052E+02
 0.99783664012E+02 0.96015384442E+02 0.91454531032E+02 0.91454530318E+02 0.96015382937E+02
 0.99783662826E+02 0.99300137892E+02 0.95937173197E+02 0.92274818508E+02 0.88957915018E+02
 0.85668681052E+02 0.82805859196E+02 0.80728728177E+02 0.79268734086E+02 0.78390100917E+02